 Entering Gaussian System, Link 0=/share/apps/g16/g16
 Initial command:
 /share/apps/g16/l1.exe "/scratch/webmodemo/webmo-4350/1648262/Gau-3616735.inp" -scrdir="/scratch/webmodemo/webmo-4350/1648262/"
 Entering Link 1 = /share/apps/g16/l1.exe PID=   3616736.
  
 Copyright (c) 1988-2019, Gaussian, Inc.  All Rights Reserved.
  
 This is part of the Gaussian(R) 16 program.  It is based on
 the Gaussian(R) 09 system (copyright 2009, Gaussian, Inc.),
 the Gaussian(R) 03 system (copyright 2003, Gaussian, Inc.),
 the Gaussian(R) 98 system (copyright 1998, Gaussian, Inc.),
 the Gaussian(R) 94 system (copyright 1995, Gaussian, Inc.),
 the Gaussian 92(TM) system (copyright 1992, Gaussian, Inc.),
 the Gaussian 90(TM) system (copyright 1990, Gaussian, Inc.),
 the Gaussian 88(TM) system (copyright 1988, Gaussian, Inc.),
 the Gaussian 86(TM) system (copyright 1986, Carnegie Mellon
 University), and the Gaussian 82(TM) system (copyright 1983,
 Carnegie Mellon University). Gaussian is a federally registered
 trademark of Gaussian, Inc.
  
 This software contains proprietary and confidential information,
 including trade secrets, belonging to Gaussian, Inc.
  
 This software is provided under written license and may be
 used, copied, transmitted, or stored only in accord with that
 written license.
  
 The following legend is applicable only to US Government
 contracts under FAR:
  
                    RESTRICTED RIGHTS LEGEND
  
 Use, reproduction and disclosure by the US Government is
 subject to restrictions as set forth in subparagraphs (a)
 and (c) of the Commercial Computer Software - Restricted
 Rights clause in FAR 52.227-19.
  
 Gaussian, Inc.
 340 Quinnipiac St., Bldg. 40, Wallingford CT 06492
  
  
 ---------------------------------------------------------------
 Warning -- This program may not be used in any manner that
 competes with the business of Gaussian, Inc. or will provide
 assistance to any competitor of Gaussian, Inc.  The licensee
 of this program is prohibited from giving any competitor of
 Gaussian, Inc. access to this program.  By using this program,
 the user acknowledges that Gaussian, Inc. is engaged in the
 business of creating and licensing software in the field of
 computational chemistry and represents and warrants to the
 licensee that it is not a competitor of Gaussian, Inc. and that
 it will not use this program in any manner prohibited above.
 ---------------------------------------------------------------
  

 Cite this work as:
 Gaussian 16, Revision C.01,
 M. J. Frisch, G. W. Trucks, H. B. Schlegel, G. E. Scuseria, 
 M. A. Robb, J. R. Cheeseman, G. Scalmani, V. Barone, 
 G. A. Petersson, H. Nakatsuji, X. Li, M. Caricato, A. V. Marenich, 
 J. Bloino, B. G. Janesko, R. Gomperts, B. Mennucci, H. P. Hratchian, 
 J. V. Ortiz, A. F. Izmaylov, J. L. Sonnenberg, D. Williams-Young, 
 F. Ding, F. Lipparini, F. Egidi, J. Goings, B. Peng, A. Petrone, 
 T. Henderson, D. Ranasinghe, V. G. Zakrzewski, J. Gao, N. Rega, 
 G. Zheng, W. Liang, M. Hada, M. Ehara, K. Toyota, R. Fukuda, 
 J. Hasegawa, M. Ishida, T. Nakajima, Y. Honda, O. Kitao, H. Nakai, 
 T. Vreven, K. Throssell, J. A. Montgomery, Jr., J. E. Peralta, 
 F. Ogliaro, M. J. Bearpark, J. J. Heyd, E. N. Brothers, K. N. Kudin, 
 V. N. Staroverov, T. A. Keith, R. Kobayashi, J. Normand, 
 K. Raghavachari, A. P. Rendell, J. C. Burant, S. S. Iyengar, 
 J. Tomasi, M. Cossi, J. M. Millam, M. Klene, C. Adamo, R. Cammi, 
 J. W. Ochterski, R. L. Martin, K. Morokuma, O. Farkas, 
 J. B. Foresman, and D. J. Fox, Gaussian, Inc., Wallingford CT, 2019.
 
 ******************************************
 Gaussian 16:  ES64L-G16RevC.01  3-Jul-2019
                28-Feb-2025 
 ******************************************
 -------------------
 #P RHF/6-31G scf=qc
 -------------------
 1/38=1,172=1/1;
 2/12=2,17=6,18=5,40=1/2;
 3/5=1,6=6,11=1,25=1,30=1,116=1/1,2,3;
 4//1;
 5/5=2,8=3,38=5/8;
 6/7=2,8=2,9=2,10=2,28=1/1;
 99/5=1,9=1/99;
 Leave Link    1 at Fri Feb 28 16:02:26 2025, MaxMem=           0 cpu:               0.0 elap:               0.0
 (Enter /share/apps/g16/l101.exe)
 --
 HO
 --
 Symbolic Z-matrix:
 Charge = -1 Multiplicity = 1
 O                     0.        0.        0. 
 H                     0.        0.        3. 
 
 ITRead=  0  0
 MicOpt= -1 -1
 NAtoms=      2 NQM=        2 NQMF=       0 NMMI=      0 NMMIF=      0
                NMic=       0 NMicF=      0.
                    Isotopes and Nuclear Properties:
 (Nuclear quadrupole moments (NQMom) in fm**2, nuclear magnetic moments (NMagM)
  in nuclear magnetons)

  Atom         1           2
 IAtWgt=          16           1
 AtmWgt=  15.9949146   1.0078250
 NucSpn=           0           1
 AtZEff=  -0.0000000  -0.0000000
 NQMom=    0.0000000   0.0000000
 NMagM=    0.0000000   2.7928460
 AtZNuc=   8.0000000   1.0000000
 Leave Link  101 at Fri Feb 28 16:02:26 2025, MaxMem=   104857600 cpu:               0.1 elap:               0.1
 (Enter /share/apps/g16/l202.exe)
                          Input orientation:                          
 ---------------------------------------------------------------------
 Center     Atomic      Atomic             Coordinates (Angstroms)
 Number     Number       Type             X           Y           Z
 ---------------------------------------------------------------------
      1          8           0        0.000000    0.000000    0.000000
      2          1           0        0.000000    0.000000    3.000000
 ---------------------------------------------------------------------
 Stoichiometry    HO(1-)
 Framework group  C*V[C*(HO)]
 Deg. of freedom     1
 Full point group                 C*V     NOp   4
 Largest Abelian subgroup         C2V     NOp   4
 Largest concise Abelian subgroup C1      NOp   1
                         Standard orientation:                         
 ---------------------------------------------------------------------
 Center     Atomic      Atomic             Coordinates (Angstroms)
 Number     Number       Type             X           Y           Z
 ---------------------------------------------------------------------
      1          8           0        0.000000    0.000000    0.333333
      2          1           0        0.000000    0.000000   -2.666667
 ---------------------------------------------------------------------
 Rotational constants (GHZ):           0.0000000          59.2279261          59.2279261
 Leave Link  202 at Fri Feb 28 16:02:26 2025, MaxMem=   104857600 cpu:               0.0 elap:               0.0
 (Enter /share/apps/g16/l301.exe)
 Standard basis: 6-31G (6D, 7F)
 Ernie: Thresh=  0.10000D-02 Tol=  0.10000D-05 Strict=F.
 There are     7 symmetry adapted cartesian basis functions of A1  symmetry.
 There are     0 symmetry adapted cartesian basis functions of A2  symmetry.
 There are     2 symmetry adapted cartesian basis functions of B1  symmetry.
 There are     2 symmetry adapted cartesian basis functions of B2  symmetry.
 There are     7 symmetry adapted basis functions of A1  symmetry.
 There are     0 symmetry adapted basis functions of A2  symmetry.
 There are     2 symmetry adapted basis functions of B1  symmetry.
 There are     2 symmetry adapted basis functions of B2  symmetry.
    11 basis functions,    26 primitive gaussians,    11 cartesian basis functions
     5 alpha electrons        5 beta electrons
       nuclear repulsion energy         1.4111392291 Hartrees.
 IExCor=    0 DFT=F Ex=HF Corr=None ExCW=0 ScaHFX=  1.000000
 ScaDFX=  1.000000  1.000000  1.000000  1.000000 ScalE2=  1.000000  1.000000
 IRadAn=      5 IRanWt=     -1 IRanGd=            0 ICorTp=0 IEmpDi=  4
 NAtoms=    2 NActive=    2 NUniq=    2 SFac= 1.00D+00 NAtFMM=   60 NAOKFM=F Big=F
 Integral buffers will be    131072 words long.
 Raffenetti 1 integral format.
 Two-electron integral symmetry is turned on.
 Leave Link  301 at Fri Feb 28 16:02:26 2025, MaxMem=   104857600 cpu:               0.1 elap:               0.1
 (Enter /share/apps/g16/l302.exe)
 NPDir=0 NMtPBC=     1 NCelOv=     1 NCel=       1 NClECP=     1 NCelD=      1
         NCelK=      1 NCelE2=     1 NClLst=     1 CellRange=     0.0.
 One-electron integrals computed using PRISM.
 One-electron integral symmetry used in STVInt
 NBasis=    11 RedAO= T EigKep=  2.31D-01  NBF=     7     0     2     2
 NBsUse=    11 1.00D-06 EigRej= -1.00D+00 NBFU=     7     0     2     2
 Leave Link  302 at Fri Feb 28 16:02:26 2025, MaxMem=   104857600 cpu:               0.1 elap:               0.1
 (Enter /share/apps/g16/l303.exe)
 DipDrv:  MaxL=1.
 Leave Link  303 at Fri Feb 28 16:02:26 2025, MaxMem=   104857600 cpu:               0.0 elap:               0.0
 (Enter /share/apps/g16/l401.exe)
 ExpMin= 1.61D-01 ExpMax= 5.48D+03 ExpMxC= 8.25D+02 IAcc=3 IRadAn=         5 AccDes= 0.00D+00
 Harris functional with IExCor=  205 and IRadAn=       5 diagonalized for initial guess.
 HarFok:  IExCor=  205 AccDes= 0.00D+00 IRadAn=         5 IDoV= 1 UseB2=F ITyADJ=14
 ICtDFT=  3500011 ScaDFX=  1.000000  1.000000  1.000000  1.000000
 FoFCou: FMM=F IPFlag=           0 FMFlag=      100000 FMFlg1=           0
         NFxFlg=           0 DoJE=T BraDBF=F KetDBF=T FulRan=T
         wScrn=  0.000000 ICntrl=       500 IOpCl=  0 I1Cent=   200000004 NGrid=           0
         NMat0=    1 NMatS0=      1 NMatT0=    0 NMatD0=    1 NMtDS0=    0 NMtDT0=    0
 Petite list used in FoFCou.
 Harris En= -75.4682041473286    
 JPrj=0 DoOrth=F DoCkMO=F.
 Initial guess orbital symmetries:
       Occupied  (SG) (SG) (SG) (PI) (PI)
       Virtual   (SG) (SG) (PI) (PI) (SG) (SG)
 The electronic state of the initial guess is 1-SG.
 Leave Link  401 at Fri Feb 28 16:02:26 2025, MaxMem=   104857600 cpu:               0.1 elap:               0.1
 (Enter /share/apps/g16/l508.exe)
 Keep R1 ints in memory in symmetry-blocked form, NReq=806851.
 FoFCou: FMM=F IPFlag=           0 FMFlag=           0 FMFlg1=           0
         NFxFlg=           0 DoJE=F BraDBF=F KetDBF=F FulRan=T
         wScrn=  0.000000 ICntrl=       600 IOpCl=  0 I1Cent=           0 NGrid=           0
         NMat0=    1 NMatS0=     66 NMatT0=    0 NMatD0=    1 NMtDS0=    0 NMtDT0=    0
 Petite list used in FoFCou.
 Tight linear equation convergence will be used.
 RHF wavefunction.
 Quadratic Convergence SCF Method.
 Line search only if initial step raises energy.
 Iteration   1 EE= -74.2240068700469                                    Grad=9.601D-01 Max rot=   19.9608 deg.
 Gradient too large for Newton-Raphson -- use scaled steepest descent instead.
 Alpha Gap=    -0.735 HL deriv= 0.00D+00 Rot set to   7.18D-01
     ILin= 1 X=0.000D+00 Y=-7.422400687005D+01 DE= 0.00D+00 F= -1.42D+00
     ILin= 2 X=3.000D-01 Y=-7.458745839189D+01 DE=-3.63D-01 F= -8.94D-01 OKLS=F
     ILin= 3 X=4.000D-01 Y=-7.466174198606D+01 DE=-4.38D-01 F= -5.81D-01
     ILin= 4 X=6.000D-01 Y=-7.470243233037D+01 DE=-4.78D-01 F=  2.04D-01
     Accept linear search using points  3 and  4.
     An  expanding polynomial of degree  4 produced  0.4909
 Density matrix breaks symmetry, PCut= 1.00D-07
 Density matrix has no symmetry -- integrals replicated.
 Iteration   2 EE= -74.6997155030356     Delta-E=       -0.475708632989 Grad=3.055D-01 Max rot=    7.9678 deg.
 Gradient too large for Newton-Raphson -- use scaled steepest descent instead.
 Alpha Gap=    -0.137 HL deriv= 1.39D-01
     ILin= 1 X=0.000D+00 Y=-7.469971550304D+01 DE= 0.00D+00 F= -1.44D-01
     ILin= 2 X=4.000D-01 Y=-7.475691381285D+01 DE=-5.72D-02 F= -1.41D-01 OKLS=F
     ILin= 3 X=6.000D-01 Y=-7.478484701563D+01 DE=-8.51D-02 F= -1.38D-01
     ILin= 4 X=9.000D-01 Y=-7.482519401522D+01 DE=-1.25D-01 F= -1.31D-01
     ILin= 5 X=1.300D+00 Y=-7.487474010789D+01 DE=-1.75D-01 F= -1.16D-01
     ILin= 6 X=1.900D+00 Y=-7.493603123903D+01 DE=-2.36D-01 F= -8.64D-02
     ILin= 7 X=2.900D+00 Y=-7.499101819365D+01 DE=-2.91D-01 F= -2.15D-02
     Reject lnstep IMin12=  6  7 Big=T Turn=F Min= 3.195D+00 FVal=-7.499421347854D+01 Lims=  1.90D+00  2.90D+00
     ILin= 8 X=4.300D+00 Y=-7.495523783603D+01 DE=-2.56D-01 F=  6.91D-02
     An  expanding polynomial of degree  8 produced  3.2103
     Minimum is close to point  7 DX=  3.10D-01 DF= -3.34D-03 DXR=  9.67D-02 DFR=  1.15D-02 which will be used.
 Density matrix breaks symmetry, PCut= 1.00D-07
 Density matrix has no symmetry -- integrals replicated.
 Iteration   3 EE= -74.9910181936474     Delta-E=       -0.291302690612 Grad=3.702D-01 Max rot=    9.5045 deg.
 Gradient too large for Newton-Raphson -- use scaled steepest descent instead.
 Alpha Gap=     0.240 HL deriv= 3.72D-01
     ILin= 1 X=0.000D+00 Y=-7.499101819365D+01 DE= 0.00D+00 F= -2.48D-01
     ILin= 2 X=1.300D+00 Y=-7.501085480010D+01 DE=-1.98D-02 F=  9.23D-02 OKLS=T
     Accept linear search using points  1 and  2.
     An  expanding polynomial of degree  2 produced  0.6125
 Density matrix breaks symmetry, PCut= 1.00D-07
 Density matrix has no symmetry -- integrals replicated.
 Iteration   4 EE= -75.0582273578221     Delta-E=       -0.067209164175 Grad=2.430D-01 Max rot=    5.5840 deg.
 Gradient too large for Newton-Raphson -- use scaled steepest descent instead.
 Alpha Gap=     0.245 HL deriv= 5.42D-02
     ILin= 1 X=0.000D+00 Y=-7.505822735782D+01 DE= 0.00D+00 F= -6.56D-02
     ILin= 2 X=1.400D+00 Y=-7.506268538940D+01 DE=-4.46D-03 F=  5.91D-02 OKLS=T
     Accept linear search using points  1 and  2.
     An  expanding polynomial of degree  2 produced  0.7568
 Density matrix breaks symmetry, PCut= 1.00D-07
 Density matrix has no symmetry -- integrals replicated.
 Iteration   5 EE= -75.0823482552162     Delta-E=       -0.024120897394 Grad=8.367D-02 Max rot=    1.7346 deg.
 Gradient too large for Newton-Raphson -- use scaled steepest descent instead.
 Alpha Gap=     0.295 HL deriv= 7.24D-02
     ILin= 1 X=0.000D+00 Y=-7.508234825522D+01 DE= 0.00D+00 F= -1.56D-02
     ILin= 2 X=7.000D-01 Y=-7.508893432226D+01 DE=-6.59D-03 F= -3.63D-03 OKLS=T
     Reject lnstep IMin12=  1  2 Big=T Turn=F Min= 1.159D+00 FVal=-7.509071230128D+01 Lims=  0.00D+00  7.00D-01
     ILin= 3 X=1.100D+00 Y=-7.508920914449D+01 DE=-6.86D-03 F=  2.13D-03
     Accept linear search using points  2 and  3.
     An  expanding polynomial of degree  3 produced  0.9025
 Density matrix breaks symmetry, PCut= 1.00D-07
 Density matrix has no symmetry -- integrals replicated.
 Iteration   6 EE= -75.0893613033941     Delta-E=       -0.007013048178 Grad=6.335D-02 Max rot=    1.6175 deg.
 Gradient too large for Newton-Raphson -- use scaled steepest descent instead.
 Alpha Gap=     0.279 HL deriv= 1.08D-02
     ILin= 1 X=0.000D+00 Y=-7.508936130339D+01 DE= 0.00D+00 F= -5.17D-03
     ILin= 2 X=8.000D-01 Y=-7.509173075981D+01 DE=-2.37D-03 F= -7.57D-04 OKLS=T
     Reject lnstep IMin12=  1  2 Big=T Turn=F Min= 1.944D+00 FVal=-7.509234624185D+01 Lims=  0.00D+00  8.00D-01
     ILin= 3 X=1.700D+00 Y=-7.509019082195D+01 DE=-8.30D-04 F=  4.17D-03
     An  expanding polynomial of degree  3 produced  0.9388
 Density matrix breaks symmetry, PCut= 1.00D-07
 Density matrix has no symmetry -- integrals replicated.
 Iteration   7 EE= -75.0917829024491     Delta-E=       -0.002421599055 Grad=2.654D-02 Max rot=    0.7389 deg.
 Gradient too large for Newton-Raphson -- use scaled steepest descent instead.
 Alpha Gap=     0.296 HL deriv= 1.56D-02
     ILin= 1 X=0.000D+00 Y=-7.509178290245D+01 DE= 0.00D+00 F= -2.11D-03
     ILin= 2 X=9.000D-01 Y=-7.509295931329D+01 DE=-1.18D-03 F= -5.30D-04 OKLS=T
     Reject lnstep IMin12=  1  2 Big=T Turn=F Min= 3.017D+00 FVal=-7.509345009428D+01 Lims=  0.00D+00  9.00D-01
     ILin= 3 X=1.800D+00 Y=-7.509277813210D+01 DE=-9.95D-04 F=  9.09D-04
     An  expanding polynomial of degree  3 produced  1.2299
 Density matrix breaks symmetry, PCut= 1.00D-07
 Density matrix has no symmetry -- integrals replicated.
 Iteration   8 EE= -75.0930439488802     Delta-E=       -0.001261046431 Grad=3.198D-02 Max rot=    0.6949 deg.
 Gradient too large for Newton-Raphson -- use scaled steepest descent instead.
 Alpha Gap=     0.288 HL deriv= 1.73D-02
     ILin= 1 X=0.000D+00 Y=-7.509304394888D+01 DE= 0.00D+00 F= -1.70D-03
     ILin= 2 X=1.100D+00 Y=-7.509396753354D+01 DE=-9.24D-04 F=  1.77D-05 OKLS=T
     Accept linear search using points  1 and  2.
     An  expanding polynomial of degree  2 produced  1.0913
     Minimum is close to point  2 DX= -8.71D-03 DF= -7.02D-08 DXR=  7.99D-03 DFR=  7.60D-05 which will be used.
 Density matrix breaks symmetry, PCut= 1.00D-07
 Density matrix has no symmetry -- integrals replicated.
 Iteration   9 EE= -75.0939675335364     Delta-E=       -0.000923584656 Grad=2.292D-02 Max rot=    0.5849 deg.
 Gradient too large for Newton-Raphson -- use scaled steepest descent instead.
 Alpha Gap=     0.301 HL deriv= 1.27D-03
     ILin= 1 X=0.000D+00 Y=-7.509396753354D+01 DE= 0.00D+00 F= -1.26D-03
     ILin= 2 X=1.200D+00 Y=-7.509480377708D+01 DE=-8.36D-04 F= -1.41D-04 OKLS=T
     Reject lnstep IMin12=  1  2 Big=T Turn=F Min= 1.280D+00 FVal=-7.509480850723D+01 Lims=  0.00D+00  1.20D+00
     ILin= 3 X=2.300D+00 Y=-7.509440746387D+01 DE=-4.40D-04 F=  8.57D-04
     An  expanding polynomial of degree  3 produced  1.3581
 Density matrix breaks symmetry, PCut= 1.00D-07
 Density matrix has no symmetry -- integrals replicated.
 Iteration  10 EE= -75.0948145731737     Delta-E=       -0.000847039637 Grad=2.744D-02 Max rot=    0.5520 deg.
 Gradient too large for Newton-Raphson -- use scaled steepest descent instead.
 Alpha Gap=     0.295 HL deriv= 2.04D-02
     ILin= 1 X=0.000D+00 Y=-7.509481457317D+01 DE= 0.00D+00 F= -1.44D-03
     ILin= 2 X=1.200D+00 Y=-7.509565003536D+01 DE=-8.35D-04 F=  5.30D-05 OKLS=T
     Accept linear search using points  1 and  2.
     An  expanding polynomial of degree  2 produced  1.1734
     Minimum is close to point  2 DX= -2.66D-02 DF= -5.85D-07 DXR=  2.26D-02 DFR=  7.00D-04 which will be used.
 Density matrix breaks symmetry, PCut= 1.00D-07
 Density matrix has no symmetry -- integrals replicated.
 Iteration  11 EE= -75.0956500353555     Delta-E=       -0.000835462182 Grad=2.498D-02 Max rot=    0.5557 deg.
 Gradient too large for Newton-Raphson -- use scaled steepest descent instead.
 Alpha Gap=     0.308 HL deriv= 1.39D-03
     ILin= 1 X=0.000D+00 Y=-7.509565003536D+01 DE= 0.00D+00 F= -1.31D-03
     ILin= 2 X=1.300D+00 Y=-7.509645965158D+01 DE=-8.10D-04 F=  5.86D-05 OKLS=T
     Accept linear search using points  1 and  2.
     An  expanding polynomial of degree  2 produced  1.2707
     Minimum is close to point  2 DX= -2.93D-02 DF= -6.57D-07 DXR=  2.30D-02 DFR=  8.12D-04 which will be used.
 Density matrix breaks symmetry, PCut= 1.00D-07
 Density matrix has no symmetry -- integrals replicated.
 Iteration  12 EE= -75.0964596515839     Delta-E=       -0.000809616228 Grad=2.653D-02 Max rot=    0.5249 deg.
 Gradient too large for Newton-Raphson -- use scaled steepest descent instead.
 Alpha Gap=     0.303 HL deriv= 2.08D-02
     ILin= 1 X=0.000D+00 Y=-7.509645965158D+01 DE= 0.00D+00 F= -1.39D-03
     ILin= 2 X=1.200D+00 Y=-7.509727831212D+01 DE=-8.19D-04 F=  2.58D-05 OKLS=T
     Accept linear search using points  1 and  2.
     An  expanding polynomial of degree  2 produced  1.1866
     Minimum is close to point  2 DX= -1.34D-02 DF= -1.44D-07 DXR=  1.13D-02 DFR=  1.76D-04 which will be used.
 Density matrix breaks symmetry, PCut= 1.00D-07
 Density matrix has no symmetry -- integrals replicated.
 Iteration  13 EE= -75.0972783121223     Delta-E=       -0.000818660538 Grad=2.438D-02 Max rot=    0.5367 deg.
 Gradient too large for Newton-Raphson -- use scaled steepest descent instead.
 Alpha Gap=     0.316 HL deriv= 2.75D-03
     ILin= 1 X=0.000D+00 Y=-7.509727831212D+01 DE= 0.00D+00 F= -1.24D-03
     ILin= 2 X=1.200D+00 Y=-7.509806769368D+01 DE=-7.89D-04 F= -7.25D-05 OKLS=T
     Reject lnstep IMin12=  1  2 Big=T Turn=F Min= 1.242D+00 FVal=-7.509806896136D+01 Lims=  0.00D+00  1.20D+00
     ILin= 3 X=2.500D+00 Y=-7.509734304442D+01 DE=-6.47D-05 F=  1.18D-03
     An  expanding polynomial of degree  3 produced  1.2766
     Minimum is close to point  2 DX=  7.66D-02 DF= -2.85D-06 DXR=  6.00D-02 DFR=  3.62D-03 which will be used.
 Density matrix breaks symmetry, PCut= 1.00D-07
 Density matrix has no symmetry -- integrals replicated.
 Iteration  14 EE= -75.0980676936751     Delta-E=       -0.000789381553 Grad=2.270D-02 Max rot=    0.4273 deg.
 Gradient too large for Newton-Raphson -- use scaled steepest descent instead.
 Alpha Gap=     0.312 HL deriv= 1.90D-02
     ILin= 1 X=0.000D+00 Y=-7.509806769368D+01 DE= 0.00D+00 F= -1.12D-03
     ILin= 2 X=1.200D+00 Y=-7.509884825360D+01 DE=-7.81D-04 F= -1.79D-04 OKLS=T
     Reject lnstep IMin12=  1  2 Big=T Turn=F Min= 1.311D+00 FVal=-7.509885667377D+01 Lims=  0.00D+00  1.20D+00
     ILin= 3 X=2.500D+00 Y=-7.509841614305D+01 DE=-3.48D-04 F=  8.45D-04
     An  expanding polynomial of degree  3 produced  1.4273
 Density matrix breaks symmetry, PCut= 1.00D-07
 Density matrix has no symmetry -- integrals replicated.
 Iteration  15 EE= -75.0988687152895     Delta-E=       -0.000801021614 Grad=2.683D-02 Max rot=    0.5428 deg.
 Gradient too large for Newton-Raphson -- use scaled steepest descent instead.
 Alpha Gap=     0.325 HL deriv= 2.13D-03
     ILin= 1 X=0.000D+00 Y=-7.509886871529D+01 DE= 0.00D+00 F= -1.40D-03
     ILin= 2 X=1.300D+00 Y=-7.509962231078D+01 DE=-7.54D-04 F=  2.37D-04 OKLS=T
     Accept linear search using points  1 and  2.
     An  expanding polynomial of degree  2 produced  1.1842
     Minimum is close to point  2 DX= -1.16D-01 DF= -1.04D-05 DXR=  9.78D-02 DFR=  1.38D-02 which will be used.
 Density matrix breaks symmetry, PCut= 1.00D-07
 Density matrix has no symmetry -- integrals replicated.
 Iteration  16 EE= -75.0996223107814     Delta-E=       -0.000753595492 Grad=2.831D-02 Max rot=    0.5693 deg.
 Gradient too large for Newton-Raphson -- use scaled steepest descent instead.
 Alpha Gap=     0.319 HL deriv= 2.10D-02
     ILin= 1 X=0.000D+00 Y=-7.509962231078D+01 DE= 0.00D+00 F= -1.47D-03
     ILin= 2 X=1.300D+00 Y=-7.510036962846D+01 DE=-7.47D-04 F=  3.28D-04 OKLS=T
     Accept linear search using points  1 and  2.
     An  expanding polynomial of degree  2 produced  1.1476
 Density matrix breaks symmetry, PCut= 1.00D-07
 Density matrix has no symmetry -- integrals replicated.
 Iteration  17 EE= -75.1004034086542     Delta-E=       -0.000781097873 Grad=2.356D-02 Max rot=    0.5079 deg.
 Gradient too large for Newton-Raphson -- use scaled steepest descent instead.
 Alpha Gap=     0.332 HL deriv= 3.79D-03
     ILin= 1 X=0.000D+00 Y=-7.510040340865D+01 DE= 0.00D+00 F= -1.16D-03
     ILin= 2 X=1.200D+00 Y=-7.510112717535D+01 DE=-7.24D-04 F= -4.77D-05 OKLS=T
     Reject lnstep IMin12=  1  2 Big=T Turn=F Min= 1.230D+00 FVal=-7.510112776513D+01 Lims=  0.00D+00  1.20D+00
     ILin= 3 X=2.300D+00 Y=-7.510062222348D+01 DE=-2.19D-04 F=  9.64D-04
     An  expanding polynomial of degree  3 produced  1.2530
     Minimum is close to point  2 DX=  5.30D-02 DF= -1.30D-06 DXR=  4.23D-02 DFR=  1.79D-03 which will be used.
 Density matrix breaks symmetry, PCut= 1.00D-07
 Density matrix has no symmetry -- integrals replicated.
 Iteration  18 EE= -75.1011271753508     Delta-E=       -0.000723766697 Grad=2.202D-02 Max rot=    0.4142 deg.
 Gradient too large for Newton-Raphson -- use scaled steepest descent instead.
 Alpha Gap=     0.328 HL deriv= 1.80D-02
     ILin= 1 X=0.000D+00 Y=-7.510112717535D+01 DE= 0.00D+00 F= -1.03D-03
     ILin= 2 X=1.200D+00 Y=-7.510183328431D+01 DE=-7.06D-04 F= -1.49D-04 OKLS=T
     Reject lnstep IMin12=  1  2 Big=T Turn=F Min= 1.300D+00 FVal=-7.510183960370D+01 Lims=  0.00D+00  1.20D+00
     ILin= 3 X=2.400D+00 Y=-7.510148240885D+01 DE=-3.55D-04 F=  7.34D-04
     An  expanding polynomial of degree  3 produced  1.4016
 Density matrix breaks symmetry, PCut= 1.00D-07
 Density matrix has no symmetry -- integrals replicated.
 Iteration  19 EE= -75.1018483096254     Delta-E=       -0.000721134275 Grad=2.486D-02 Max rot=    0.5039 deg.
 Gradient too large for Newton-Raphson -- use scaled steepest descent instead.
 Alpha Gap=     0.340 HL deriv= 3.34D-03
     ILin= 1 X=0.000D+00 Y=-7.510184830963D+01 DE= 0.00D+00 F= -1.22D-03
     ILin= 2 X=1.300D+00 Y=-7.510252043837D+01 DE=-6.72D-04 F=  1.87D-04 OKLS=T
     Accept linear search using points  1 and  2.
     An  expanding polynomial of degree  2 produced  1.1960
     Minimum is close to point  2 DX= -1.04D-01 DF= -7.39D-06 DXR=  8.69D-02 DFR=  1.10D-02 which will be used.
 Density matrix breaks symmetry, PCut= 1.00D-07
 Density matrix has no symmetry -- integrals replicated.
 Iteration  20 EE= -75.1025204383710     Delta-E=       -0.000672128746 Grad=2.642D-02 Max rot=    0.5272 deg.
 Gradient too large for Newton-Raphson -- use scaled steepest descent instead.
 Alpha Gap=     0.336 HL deriv= 1.92D-02
     ILin= 1 X=0.000D+00 Y=-7.510252043837D+01 DE= 0.00D+00 F= -1.27D-03
     ILin= 2 X=1.300D+00 Y=-7.510317760582D+01 DE=-6.57D-04 F=  2.63D-04 OKLS=T
     Accept linear search using points  1 and  2.
     An  expanding polynomial of degree  2 produced  1.1588
 Density matrix breaks symmetry, PCut= 1.00D-07
 Density matrix has no symmetry -- integrals replicated.
 Iteration  21 EE= -75.1032028965771     Delta-E=       -0.000682458206 Grad=2.191D-02 Max rot=    0.4670 deg.
 Gradient too large for Newton-Raphson -- use scaled steepest descent instead.
 Alpha Gap=     0.347 HL deriv= 4.49D-03
     ILin= 1 X=0.000D+00 Y=-7.510320289658D+01 DE= 0.00D+00 F= -1.01D-03
     ILin= 2 X=1.200D+00 Y=-7.510383086362D+01 DE=-6.28D-04 F= -3.55D-05 OKLS=T
     Reject lnstep IMin12=  1  2 Big=T Turn=F Min= 1.225D+00 FVal=-7.510383123744D+01 Lims=  0.00D+00  1.20D+00
     ILin= 3 X=2.400D+00 Y=-7.510329036004D+01 DE=-8.75D-05 F=  9.35D-04
     An  expanding polynomial of degree  3 produced  1.2449
     Minimum is close to point  2 DX=  4.49D-02 DF= -8.18D-07 DXR=  3.61D-02 DFR=  1.30D-03 which will be used.
 Density matrix breaks symmetry, PCut= 1.00D-07
 Density matrix has no symmetry -- integrals replicated.
 Iteration  22 EE= -75.1038308636199     Delta-E=       -0.000627967043 Grad=2.065D-02 Max rot=    0.3873 deg.
 Gradient too large for Newton-Raphson -- use scaled steepest descent instead.
 Alpha Gap=     0.344 HL deriv= 1.66D-02
     ILin= 1 X=0.000D+00 Y=-7.510383086362D+01 DE= 0.00D+00 F= -8.86D-04
     ILin= 2 X=1.200D+00 Y=-7.510443572503D+01 DE=-6.05D-04 F= -1.21D-04 OKLS=T
     Reject lnstep IMin12=  1  2 Big=T Turn=F Min= 1.295D+00 FVal=-7.510444061439D+01 Lims=  0.00D+00  1.20D+00
     ILin= 3 X=2.400D+00 Y=-7.510412091356D+01 DE=-2.90D-04 F=  6.46D-04
     An  expanding polynomial of degree  3 produced  1.3892
 Density matrix breaks symmetry, PCut= 1.00D-07
 Density matrix has no symmetry -- integrals replicated.
 Iteration  23 EE= -75.1044472269262     Delta-E=       -0.000616363306 Grad=2.261D-02 Max rot=    0.4561 deg.
 Gradient too large for Newton-Raphson -- use scaled steepest descent instead.
 Alpha Gap=     0.354 HL deriv= 4.09D-03
     ILin= 1 X=0.000D+00 Y=-7.510444722693D+01 DE= 0.00D+00 F= -1.03D-03
     ILin= 2 X=1.300D+00 Y=-7.510501572745D+01 DE=-5.69D-04 F=  1.50D-04 OKLS=T
     Accept linear search using points  1 and  2.
     An  expanding polynomial of degree  2 produced  1.2008
     Minimum is close to point  2 DX= -9.92D-02 DF= -5.66D-06 DXR=  8.26D-02 DFR=  9.96D-03 which will be used.
 Density matrix breaks symmetry, PCut= 1.00D-07
 Density matrix has no symmetry -- integrals replicated.
 Iteration  24 EE= -75.1050157274483     Delta-E=       -0.000568500522 Grad=2.422D-02 Max rot=    0.4805 deg.
 Gradient too large for Newton-Raphson -- use scaled steepest descent instead.
 Alpha Gap=     0.351 HL deriv= 1.73D-02
     ILin= 1 X=0.000D+00 Y=-7.510501572745D+01 DE= 0.00D+00 F= -1.06D-03
     ILin= 2 X=1.300D+00 Y=-7.510556406054D+01 DE=-5.48D-04 F=  2.15D-04 OKLS=T
     Accept linear search using points  1 and  2.
     An  expanding polynomial of degree  2 produced  1.1610
 Density matrix breaks symmetry, PCut= 1.00D-07
 Density matrix has no symmetry -- integrals replicated.
 Iteration  25 EE= -75.1055844512720     Delta-E=       -0.000568723824 Grad=1.984D-02 Max rot=    0.4180 deg.
 Gradient too large for Newton-Raphson -- use scaled steepest descent instead.
 Alpha Gap=     0.360 HL deriv= 4.89D-03
     ILin= 1 X=0.000D+00 Y=-7.510558445127D+01 DE= 0.00D+00 F= -8.38D-04
     ILin= 2 X=1.200D+00 Y=-7.510610324993D+01 DE=-5.19D-04 F= -2.70D-05 OKLS=T
     Reject lnstep IMin12=  1  2 Big=T Turn=F Min= 1.223D+00 FVal=-7.510610351094D+01 Lims=  0.00D+00  1.20D+00
     ILin= 3 X=2.400D+00 Y=-7.510565071062D+01 DE=-6.63D-05 F=  7.80D-04
     An  expanding polynomial of degree  3 produced  1.2409
     Minimum is close to point  2 DX=  4.09D-02 DF= -5.65D-07 DXR=  3.30D-02 DFR=  1.09D-03 which will be used.
 Density matrix breaks symmetry, PCut= 1.00D-07
 Density matrix has no symmetry -- integrals replicated.
 Iteration  26 EE= -75.1061032499263     Delta-E=       -0.000518798654 Grad=1.886D-02 Max rot=    0.3649 deg.
 Gradient too large for Newton-Raphson -- use scaled steepest descent instead.
 Alpha Gap=     0.359 HL deriv= 1.50D-02
     ILin= 1 X=0.000D+00 Y=-7.510610324993D+01 DE= 0.00D+00 F= -7.28D-04
     ILin= 2 X=1.200D+00 Y=-7.510659739358D+01 DE=-4.94D-04 F= -9.48D-05 OKLS=T
     Reject lnstep IMin12=  1  2 Big=T Turn=F Min= 1.291D+00 FVal=-7.510660103458D+01 Lims=  0.00D+00  1.20D+00
     ILin= 3 X=2.400D+00 Y=-7.510633003420D+01 DE=-2.27D-04 F=  5.40D-04
     An  expanding polynomial of degree  3 produced  1.3787
 Density matrix breaks symmetry, PCut= 1.00D-07
 Density matrix has no symmetry -- integrals replicated.
 Iteration  27 EE= -75.1066058815047     Delta-E=       -0.000502631578 Grad=2.014D-02 Max rot=    0.4069 deg.
 Gradient too large for Newton-Raphson -- use scaled steepest descent instead.
 Alpha Gap=     0.367 HL deriv= 4.47D-03
     ILin= 1 X=0.000D+00 Y=-7.510660588150D+01 DE= 0.00D+00 F= -8.25D-04
     ILin= 2 X=1.300D+00 Y=-7.510706552513D+01 DE=-4.60D-04 F=  1.17D-04 OKLS=T
     Accept linear search using points  1 and  2.
     An  expanding polynomial of degree  2 produced  1.2040
     Minimum is close to point  2 DX= -9.60D-02 DF= -4.28D-06 DXR=  7.98D-02 DFR=  9.31D-03 which will be used.
 Density matrix breaks symmetry, PCut= 1.00D-07
 Density matrix has no symmetry -- integrals replicated.
 Iteration  28 EE= -75.1070655251309     Delta-E=       -0.000459643626 Grad=2.176D-02 Max rot=    0.4292 deg.
 Gradient too large for Newton-Raphson -- use scaled steepest descent instead.
 Alpha Gap=     0.365 HL deriv= 1.53D-02
     ILin= 1 X=0.000D+00 Y=-7.510706552513D+01 DE= 0.00D+00 F= -8.45D-04
     ILin= 2 X=1.300D+00 Y=-7.510750344122D+01 DE=-4.38D-04 F=  1.73D-04 OKLS=T
     Accept linear search using points  1 and  2.
     An  expanding polynomial of degree  2 produced  1.1604
 Density matrix breaks symmetry, PCut= 1.00D-07
 Density matrix has no symmetry -- integrals replicated.
 Iteration  29 EE= -75.1075198737201     Delta-E=       -0.000454348589 Grad=1.760D-02 Max rot=    0.3664 deg.
 Gradient too large for Newton-Raphson -- use scaled steepest descent instead.
 Alpha Gap=     0.373 HL deriv= 4.98D-03
     ILin= 1 X=0.000D+00 Y=-7.510751987372D+01 DE= 0.00D+00 F= -6.66D-04
     ILin= 2 X=1.200D+00 Y=-7.510793142129D+01 DE=-4.12D-04 F= -1.98D-05 OKLS=T
     Reject lnstep IMin12=  1  2 Big=T Turn=F Min= 1.221D+00 FVal=-7.510793159890D+01 Lims=  0.00D+00  1.20D+00
     ILin= 3 X=2.400D+00 Y=-7.510756843705D+01 DE=-4.86D-05 F=  6.24D-04
     An  expanding polynomial of degree  3 produced  1.2376
     Minimum is close to point  2 DX=  3.76D-02 DF= -3.81D-07 DXR=  3.04D-02 DFR=  9.25D-04 which will be used.
 Density matrix breaks symmetry, PCut= 1.00D-07
 Density matrix has no symmetry -- integrals replicated.
 Iteration  30 EE= -75.1079314212888     Delta-E=       -0.000411547569 Grad=1.688D-02 Max rot=    0.3341 deg.
 Gradient too large for Newton-Raphson -- use scaled steepest descent instead.
 Alpha Gap=     0.372 HL deriv= 1.32D-02
     ILin= 1 X=0.000D+00 Y=-7.510793142129D+01 DE= 0.00D+00 F= -5.76D-04
     ILin= 2 X=1.200D+00 Y=-7.510831981410D+01 DE=-3.88D-04 F= -7.06D-05 OKLS=T
     Reject lnstep IMin12=  1  2 Big=T Turn=F Min= 1.286D+00 FVal=-7.510832237395D+01 Lims=  0.00D+00  1.20D+00
     ILin= 3 X=2.400D+00 Y=-7.510810044383D+01 DE=-1.69D-04 F=  4.36D-04
     An  expanding polynomial of degree  3 produced  1.3669
 Density matrix breaks symmetry, PCut= 1.00D-07
 Density matrix has no symmetry -- integrals replicated.
 Iteration  31 EE= -75.1083257213659     Delta-E=       -0.000394300077 Grad=1.763D-02 Max rot=    0.3571 deg.
 Gradient too large for Newton-Raphson -- use scaled steepest descent instead.
 Alpha Gap=     0.379 HL deriv= 4.55D-03
     ILin= 1 X=0.000D+00 Y=-7.510832572137D+01 DE= 0.00D+00 F= -6.40D-04
     ILin= 2 X=1.300D+00 Y=-7.510868417343D+01 DE=-3.58D-04 F=  8.80D-05 OKLS=T
     Accept linear search using points  1 and  2.
     An  expanding polynomial of degree  2 produced  1.2073
     Minimum is close to point  2 DX= -9.27D-02 DF= -3.10D-06 DXR=  7.68D-02 DFR=  8.64D-03 which will be used.
 Density matrix breaks symmetry, PCut= 1.00D-07
 Density matrix has no symmetry -- integrals replicated.
 Iteration  32 EE= -75.1086841734277     Delta-E=       -0.000358452062 Grad=1.920D-02 Max rot=    0.3803 deg.
 Gradient too large for Newton-Raphson -- use scaled steepest descent instead.
 Alpha Gap=     0.377 HL deriv= 1.34D-02
     ILin= 1 X=0.000D+00 Y=-7.510868417343D+01 DE= 0.00D+00 F= -6.53D-04
     ILin= 2 X=1.300D+00 Y=-7.510902209303D+01 DE=-3.38D-04 F=  1.34D-04 OKLS=T
     Accept linear search using points  1 and  2.
     An  expanding polynomial of degree  2 produced  1.1593
 Density matrix breaks symmetry, PCut= 1.00D-07
 Density matrix has no symmetry -- integrals replicated.
 Iteration  33 EE= -75.1090349866062     Delta-E=       -0.000350813179 Grad=1.538D-02 Max rot=    0.3161 deg.
 Gradient too large for Newton-Raphson -- use scaled steepest descent instead.
 Alpha Gap=     0.384 HL deriv= 4.82D-03
     ILin= 1 X=0.000D+00 Y=-7.510903498661D+01 DE= 0.00D+00 F= -5.13D-04
     ILin= 2 X=1.200D+00 Y=-7.510935126244D+01 DE=-3.16D-04 F= -1.39D-05 OKLS=T
     Reject lnstep IMin12=  1  2 Big=T Turn=F Min= 1.219D+00 FVal=-7.510935137558D+01 Lims=  0.00D+00  1.20D+00
     ILin= 3 X=2.400D+00 Y=-7.510906892252D+01 DE=-3.39D-05 F=  4.84D-04
     An  expanding polynomial of degree  3 produced  1.2340
     Minimum is close to point  2 DX=  3.40D-02 DF= -2.40D-07 DXR=  2.76D-02 DFR=  7.60D-04 which will be used.
 Density matrix breaks symmetry, PCut= 1.00D-07
 Density matrix has no symmetry -- integrals replicated.
 Iteration  34 EE= -75.1093512624354     Delta-E=       -0.000316275829 Grad=1.488D-02 Max rot=    0.2989 deg.
 Gradient too large for Newton-Raphson -- use scaled steepest descent instead.
 Alpha Gap=     0.383 HL deriv= 1.16D-02
     ILin= 1 X=0.000D+00 Y=-7.510935126244D+01 DE= 0.00D+00 F= -4.43D-04
     ILin= 2 X=1.200D+00 Y=-7.510964759791D+01 DE=-2.96D-04 F= -5.05D-05 OKLS=T
     Reject lnstep IMin12=  1  2 Big=T Turn=F Min= 1.280D+00 FVal=-7.510964930489D+01 Lims=  0.00D+00  1.20D+00
     ILin= 3 X=2.400D+00 Y=-7.510947216930D+01 DE=-1.21D-04 F=  3.43D-04
     An  expanding polynomial of degree  3 produced  1.3538
 Density matrix breaks symmetry, PCut= 1.00D-07
 Density matrix has no symmetry -- integrals replicated.
 Iteration  35 EE= -75.1096514929529     Delta-E=       -0.000300230517 Grad=1.521D-02 Max rot=    0.3087 deg.
 Gradient too large for Newton-Raphson -- use scaled steepest descent instead.
 Alpha Gap=     0.389 HL deriv= 4.40D-03
     ILin= 1 X=0.000D+00 Y=-7.510965149295D+01 DE= 0.00D+00 F= -4.82D-04
     ILin= 2 X=1.300D+00 Y=-7.510992348303D+01 DE=-2.72D-04 F=  6.37D-05 OKLS=T
     Accept linear search using points  1 and  2.
     An  expanding polynomial of degree  2 produced  1.2111
     Minimum is close to point  2 DX= -8.89D-02 DF= -2.15D-06 DXR=  7.34D-02 DFR=  7.91D-03 which will be used.
 Density matrix breaks symmetry, PCut= 1.00D-07
 Density matrix has no symmetry -- integrals replicated.
 Iteration  36 EE= -75.1099234830332     Delta-E=       -0.000271990080 Grad=1.669D-02 Max rot=    0.3350 deg.
 Gradient too large for Newton-Raphson -- use scaled steepest descent instead.
 Alpha Gap=     0.388 HL deriv= 1.15D-02
     ILin= 1 X=0.000D+00 Y=-7.510992348303D+01 DE= 0.00D+00 F= -4.92D-04
     ILin= 2 X=1.300D+00 Y=-7.511017766950D+01 DE=-2.54D-04 F=  1.02D-04 OKLS=T
     Accept linear search using points  1 and  2.
     An  expanding polynomial of degree  2 produced  1.1584
 Density matrix breaks symmetry, PCut= 1.00D-07
 Density matrix has no symmetry -- integrals replicated.
 Iteration  37 EE= -75.1101874924127     Delta-E=       -0.000264009380 Grad=1.330D-02 Max rot=    0.2698 deg.
 Gradient too large for Newton-Raphson -- use scaled steepest descent instead.
 Alpha Gap=     0.394 HL deriv= 4.51D-03
     ILin= 1 X=0.000D+00 Y=-7.511018749241D+01 DE= 0.00D+00 F= -3.86D-04
     ILin= 2 X=1.200D+00 Y=-7.511042489865D+01 DE=-2.37D-04 F= -9.29D-06 OKLS=T
     Reject lnstep IMin12=  1  2 Big=T Turn=F Min= 1.217D+00 FVal=-7.511042496575D+01 Lims=  0.00D+00  1.20D+00
     ILin= 3 X=2.400D+00 Y=-7.511021013354D+01 DE=-2.26D-05 F=  3.67D-04
     An  expanding polynomial of degree  3 produced  1.2300
     Minimum is close to point  2 DX=  3.00D-02 DF= -1.42D-07 DXR=  2.44D-02 DFR=  5.97D-04 which will be used.
 Density matrix breaks symmetry, PCut= 1.00D-07
 Density matrix has no symmetry -- integrals replicated.
 Iteration  38 EE= -75.1104248986453     Delta-E=       -0.000237406233 Grad=1.296D-02 Max rot=    0.2630 deg.
 Gradient too large for Newton-Raphson -- use scaled steepest descent instead.
 Alpha Gap=     0.393 HL deriv= 1.00D-02
     ILin= 1 X=0.000D+00 Y=-7.511042489865D+01 DE= 0.00D+00 F= -3.34D-04
     ILin= 2 X=1.200D+00 Y=-7.511064613192D+01 DE=-2.21D-04 F= -3.50D-05 OKLS=T
     Reject lnstep IMin12=  1  2 Big=T Turn=F Min= 1.274D+00 FVal=-7.511064722425D+01 Lims=  0.00D+00  1.20D+00
     ILin= 3 X=2.400D+00 Y=-7.511050872329D+01 DE=-8.38D-05 F=  2.64D-04
     An  expanding polynomial of degree  3 produced  1.3402
 Density matrix breaks symmetry, PCut= 1.00D-07
 Density matrix has no symmetry -- integrals replicated.
 Iteration  39 EE= -75.1106485955272     Delta-E=       -0.000223696882 Grad=1.300D-02 Max rot=    0.2641 deg.
 Gradient too large for Newton-Raphson -- use scaled steepest descent instead.
 Alpha Gap=     0.398 HL deriv= 4.11D-03
     ILin= 1 X=0.000D+00 Y=-7.511064859553D+01 DE= 0.00D+00 F= -3.56D-04
     ILin= 2 X=1.300D+00 Y=-7.511085092875D+01 DE=-2.02D-04 F=  4.50D-05 OKLS=T
     Accept linear search using points  1 and  2.
     An  expanding polynomial of degree  2 produced  1.2153
     Minimum is close to point  2 DX= -8.47D-02 DF= -1.45D-06 DXR=  6.97D-02 DFR=  7.16D-03 which will be used.
 Density matrix breaks symmetry, PCut= 1.00D-07
 Density matrix has no symmetry -- integrals replicated.
 Iteration  40 EE= -75.1108509287477     Delta-E=       -0.000202333221 Grad=1.437D-02 Max rot=    0.2907 deg.
 Gradient too large for Newton-Raphson -- use scaled steepest descent instead.
 Alpha Gap=     0.397 HL deriv= 9.88D-03
     ILin= 1 X=0.000D+00 Y=-7.511085092875D+01 DE= 0.00D+00 F= -3.64D-04
     ILin= 2 X=1.300D+00 Y=-7.511103870206D+01 DE=-1.88D-04 F=  7.55D-05 OKLS=T
     Accept linear search using points  1 and  2.
     An  expanding polynomial of degree  2 produced  1.1579
 Density matrix breaks symmetry, PCut= 1.00D-07
 Density matrix has no symmetry -- integrals replicated.
 Iteration  41 EE= -75.1110460063619     Delta-E=       -0.000195077614 Grad=1.141D-02 Max rot=    0.2291 deg.
 Gradient too large for Newton-Raphson -- use scaled steepest descent instead.
 Alpha Gap=     0.402 HL deriv= 4.11D-03
     ILin= 1 X=0.000D+00 Y=-7.511104600636D+01 DE= 0.00D+00 F= -2.86D-04
     ILin= 2 X=1.200D+00 Y=-7.511122125485D+01 DE=-1.75D-04 F= -5.95D-06 OKLS=T
     Reject lnstep IMin12=  1  2 Big=T Turn=F Min= 1.215D+00 FVal=-7.511122129209D+01 Lims=  0.00D+00  1.20D+00
     ILin= 3 X=2.400D+00 Y=-7.511106050800D+01 DE=-1.45D-05 F=  2.74D-04
     An  expanding polynomial of degree  3 produced  1.2259
     Minimum is close to point  2 DX=  2.59D-02 DF= -7.82D-08 DXR=  2.11D-02 DFR=  4.46D-04 which will be used.
 Density matrix breaks symmetry, PCut= 1.00D-07
 Density matrix has no symmetry -- integrals replicated.
 Iteration  42 EE= -75.1112212548535     Delta-E=       -0.000175248492 Grad=1.120D-02 Max rot=    0.2285 deg.
 Gradient too large for Newton-Raphson -- use scaled steepest descent instead.
 Alpha Gap=     0.401 HL deriv= 8.61D-03
     ILin= 1 X=0.000D+00 Y=-7.511122125485D+01 DE= 0.00D+00 F= -2.47D-04
     ILin= 2 X=1.200D+00 Y=-7.511138391750D+01 DE=-1.63D-04 F= -2.38D-05 OKLS=T
     Reject lnstep IMin12=  1  2 Big=T Turn=F Min= 1.268D+00 FVal=-7.511138459655D+01 Lims=  0.00D+00  1.20D+00
     ILin= 3 X=2.400D+00 Y=-7.511127810279D+01 DE=-5.68D-05 F=  2.00D-04
     An  expanding polynomial of degree  3 produced  1.3270
     Minimum is close to point  2 DX=  1.27D-01 DF= -1.50D-06 DXR=  9.57D-02 DFR=  9.25D-03 which will be used.
 Density matrix breaks symmetry, PCut= 1.00D-07
 Density matrix has no symmetry -- integrals replicated.
 Iteration  43 EE= -75.1113839174965     Delta-E=       -0.000162662643 Grad=9.430D-03 Max rot=    0.2004 deg.
 QCNR:  CnvC1=1.00D-09 CnvC2=1.00D-08
 LinEq1:  Iter=  0 NonCon=     1 RMS=1.55D-03 Max=6.41D-03 NDo=     1
 AX will form     1 AO Fock derivatives at one time.
 LinEq1:  Iter=  1 NonCon=     1 RMS=1.43D-03 Max=5.46D-03 NDo=     1
 LinEq1:  Iter=  2 NonCon=     1 RMS=1.21D-04 Max=2.96D-04 NDo=     1
 LinEq1:  Iter=  3 NonCon=     1 RMS=1.25D-05 Max=5.25D-05 NDo=     1
 LinEq1:  Iter=  4 NonCon=     1 RMS=1.18D-06 Max=3.01D-06 NDo=     1
 LinEq1:  Iter=  5 NonCon=     1 RMS=1.04D-07 Max=3.22D-07 NDo=     1
 LinEq1:  Iter=  6 NonCon=     1 RMS=5.10D-09 Max=1.17D-08 NDo=     1
 LinEq1:  Iter=  7 NonCon=     0 RMS=5.37D-10 Max=1.29D-09 NDo=     1
 Linear equations converged to 1.000D-09 1.000D-08 after     7 iterations.
 Angle between quadratic step and gradient=  57.35 degrees.
     ILin= 1 X=0.000D+00 Y=-7.511138391750D+01 DE= 0.00D+00 F= -4.20D-03
     ILin= 2 X=1.000D+00 Y=-7.511316921690D+01 DE=-1.79D-03 F=  1.01D-03 OKLS=T
     Accept linear search using points  1 and  2.
     An  expanding polynomial of degree  2 produced  0.8368
 Density matrix breaks symmetry, PCut= 6.00D-07
 Density matrix has no symmetry -- integrals replicated.
 Iteration  44 EE= -75.1132501579598     Delta-E=       -0.001866240463 Grad=6.229D-03 Max rot=    0.1304 deg.
 QCNR:  CnvC1=1.00D-09 CnvC2=1.00D-08
 LinEq1:  Iter=  0 NonCon=     1 RMS=1.56D-03 Max=8.13D-03 NDo=     1
 LinEq1:  Iter=  1 NonCon=     1 RMS=3.62D-04 Max=1.30D-03 NDo=     1
 LinEq1:  Iter=  2 NonCon=     1 RMS=1.03D-04 Max=4.53D-04 NDo=     1
 LinEq1:  Iter=  3 NonCon=     1 RMS=3.58D-05 Max=1.17D-04 NDo=     1
 LinEq1:  Iter=  4 NonCon=     1 RMS=1.27D-06 Max=4.41D-06 NDo=     1
 LinEq1:  Iter=  5 NonCon=     1 RMS=1.45D-07 Max=4.90D-07 NDo=     1
 LinEq1:  Iter=  6 NonCon=     1 RMS=8.02D-09 Max=2.59D-08 NDo=     1
 LinEq1:  Iter=  7 NonCon=     0 RMS=9.58D-10 Max=2.43D-09 NDo=     1
 Linear equations converged to 1.000D-09 1.000D-08 after     7 iterations.
 Angle between quadratic step and gradient=  70.51 degrees.
     ILin= 1 X=0.000D+00 Y=-7.511325015796D+01 DE= 0.00D+00 F= -1.14D-04
     ILin= 2 X=1.000D+00 Y=-7.511330704605D+01 DE=-5.69D-05 F=  3.89D-07 OKLS=T
     Accept linear search using points  1 and  2.
     An  expanding polynomial of degree  2 produced  0.9966
     Minimum is close to point  2 DX= -3.38D-03 DF= -6.58D-10 DXR=  3.40D-03 DFR=  1.16D-05 which will be used.
 Density matrix breaks symmetry, PCut= 6.00D-07
 Density matrix has no symmetry -- integrals replicated.
 Iteration  45 EE= -75.1133070460538     Delta-E=       -0.000056888094 Grad=9.262D-05 Max rot=    0.0023 deg.
 QCNR:  CnvC1=9.26D-10 CnvC2=9.26D-09
 LinEq1:  Iter=  0 NonCon=     1 RMS=3.14D-05 Max=1.67D-04 NDo=     1
 LinEq1:  Iter=  1 NonCon=     1 RMS=8.50D-06 Max=3.17D-05 NDo=     1
 LinEq1:  Iter=  2 NonCon=     1 RMS=3.39D-06 Max=1.26D-05 NDo=     1
 LinEq1:  Iter=  3 NonCon=     1 RMS=6.60D-07 Max=3.05D-06 NDo=     1
 LinEq1:  Iter=  4 NonCon=     1 RMS=5.39D-08 Max=1.29D-07 NDo=     1
 LinEq1:  Iter=  5 NonCon=     1 RMS=4.07D-09 Max=1.33D-08 NDo=     1
 LinEq1:  Iter=  6 NonCon=     0 RMS=1.35D-10 Max=3.25D-10 NDo=     1
 Linear equations converged to 9.262D-10 9.262D-09 after     6 iterations.
 Angle between quadratic step and gradient=  71.81 degrees.
     ILin= 1 X=0.000D+00 Y=-7.511330704605D+01 DE= 0.00D+00 F= -7.87D-08
     ILin= 2 X=1.000D+00 Y=-7.511330708536D+01 DE=-3.93D-08
 Density matrix breaks symmetry, PCut= 6.00D-07
 Density matrix has no symmetry -- integrals replicated.
 Iteration  46 EE= -75.1133070853590     Delta-E=       -0.000000039305 Grad=5.507D-07 Max rot=    0.0000 deg.
 QCNR:  CnvC1=5.51D-12 CnvC2=5.51D-11
 LinEq1:  Iter=  0 NonCon=     1 RMS=1.93D-08 Max=8.42D-08 NDo=     1
 LinEq1:  Iter=  1 NonCon=     1 RMS=7.39D-09 Max=2.64D-08 NDo=     1
 LinEq1:  Iter=  2 NonCon=     1 RMS=3.96D-09 Max=1.47D-08 NDo=     1
 LinEq1:  Iter=  3 NonCon=     1 RMS=8.41D-10 Max=2.25D-09 NDo=     1
 LinEq1:  Iter=  4 NonCon=     1 RMS=1.02D-10 Max=3.40D-10 NDo=     1
 LinEq1:  Iter=  5 NonCon=     1 RMS=8.93D-12 Max=2.27D-11 NDo=     1
 LinEq1:  Iter=  6 NonCon=     0 RMS=7.09D-13 Max=2.42D-12 NDo=     1
 Linear equations converged to 5.507D-12 5.507D-11 after     6 iterations.
 Angle between quadratic step and gradient=  90.00 degrees.
     ILin= 1 X=0.000D+00 Y=-7.511330708536D+01 DE= 0.00D+00 F= -1.08D-13
     ILin= 2 X=1.000D+00 Y=-7.511330708536D+01 DE= 2.84D-14 F=  2.92D-17 OKLS=F
     ILin= 3 X=2.000D+00 Y=-7.511330708536D+01 DE= 1.42D-14 F=  1.08D-13
     No minimum found in polynomial.
     ILin= 4 X=4.000D+00 Y=-7.511330708536D+01 DE= 4.12D-13 F=  3.23D-13
 QCLLim is confused:  Bigger=T Turned=T
 NLin=  4 IMin12=  1  3 I12=  0  2 IX=  1 XLMin= 0.000D+00 XLMax= 0.000D+00
 X = 0.000D+00 1.000D+00 2.000D+00 4.000D+00
 DE= 0.000D+00 2.842D-14 1.421D-14 4.121D-13
     Reject polynomial IMin12=  1  3 Big=T Turn=T Min= 1.670D+00 FVal=-7.511330708536D+01 Lims=  0.00D+00  1.00D+00
     ILin= 5 X=8.000D+00 Y=-7.511330708536D+01 DE= 2.50D-12 F=  7.55D-13
 QCLLim is confused:  Bigger=T Turned=T
 NLin=  5 IMin12=  1  3 I12=  0  2 IX=  1 XLMin= 0.000D+00 XLMax= 0.000D+00
 X = 0.000D+00 1.000D+00 2.000D+00 4.000D+00 8.000D+00
 DE= 0.000D+00 2.842D-14 1.421D-14 4.121D-13 2.501D-12
     Reject polynomial IMin12=  1  3 Big=T Turn=T Min= 1.993D+00 FVal=-7.511330708536D+01 Lims=  0.00D+00  1.00D+00
     ILin= 6 X=1.600D+01 Y=-7.511330708535D+01 DE= 1.19D-11 F=  1.62D-12
     No minimum found in polynomial.
     ILin= 7 X=3.200D+01 Y=-7.511330708531D+01 DE= 5.12D-11 F=  3.34D-12
 QCLLim is confused:  Bigger=T Turned=T
 NLin=  7 IMin12=  1  3 I12=  0  2 IX=  1 XLMin= 0.000D+00 XLMax= 0.000D+00
 X = 0.000D+00 1.000D+00 2.000D+00 4.000D+00 8.000D+00 1.600D+01 3.200D+01
 DE= 0.000D+00 2.842D-14 1.421D-14 4.121D-13 2.501D-12 1.187D-11 5.116D-11
     Reject polynomial IMin12=  1  3 Big=T Turn=T Min= 1.608D+00 FVal=-7.511330708536D+01 Lims=  0.00D+00  1.00D+00
     ILin= 8 X=6.400D+01 Y=-7.511330708515D+01 DE= 2.13D-10 F=  6.79D-12
 QCLLim is confused:  Bigger=T Turned=T
 NLin=  8 IMin12=  1  3 I12=  0  2 IX=  1 XLMin= 0.000D+00 XLMax= 0.000D+00
 X = 0.000D+00 1.000D+00 2.000D+00 4.000D+00 8.000D+00 1.600D+01 3.200D+01 6.400D+01
 DE= 0.000D+00 2.842D-14 1.421D-14 4.121D-13 2.501D-12 1.187D-11 5.116D-11 2.127D-10
     Reject polynomial IMin12=  1  3 Big=T Turn=T Min= 1.457D+01 FVal=-7.511330708536D+01 Lims=  0.00D+00  1.00D+00
     ILin= 9 X=1.280D+02 Y=-7.511330708449D+01 DE= 8.67D-10 F=  1.37D-11
 QCLLim is confused:  Bigger=T Turned=T
 NLin=  9 IMin12=  1  3 I12=  0  2 IX=  1 XLMin= 0.000D+00 XLMax= 0.000D+00
 X = 0.000D+00 1.000D+00 2.000D+00 4.000D+00 8.000D+00 1.600D+01 3.200D+01 6.400D+01 1.280D+02
 DE= 0.000D+00 2.842D-14 1.421D-14 4.121D-13 2.501D-12 1.187D-11 5.116D-11 2.127D-10 8.668D-10
     Reject polynomial IMin12=  1  3 Big=T Turn=T Min= 1.388D+01 FVal=-7.511330708536D+01 Lims=  0.00D+00  1.00D+00
     ILin=10 X=2.560D+02 Y=-7.511330708186D+01 DE= 3.50D-09 F=  2.75D-11
 QCLLim is confused:  Bigger=T Turned=T
 NLin= 10 IMin12=  1  3 I12=  0  2 IX=  1 XLMin= 0.000D+00 XLMax= 0.000D+00
 X = 0.000D+00 1.000D+00 2.000D+00 4.000D+00 8.000D+00 1.600D+01 3.200D+01 6.400D+01 1.280D+02 2.560D+02
 DE= 0.000D+00 2.842D-14 1.421D-14 4.121D-13 2.501D-12 1.187D-11 5.116D-11 2.127D-10 8.668D-10 3.500D-09
     Reject polynomial IMin12=  1  3 Big=T Turn=T Min= 1.198D+01 FVal=-7.511330708537D+01 Lims=  0.00D+00  1.00D+00
     ILin=11 X=5.120D+02 Y=-7.511330707130D+01 DE= 1.41D-08 F=  5.51D-11
     No minimum found in polynomial.
     ILin=12 X=1.024D+03 Y=-7.511330702899D+01 DE= 5.64D-08 F=  1.10D-10
 QCLLim is confused:  Bigger=T Turned=T
 NLin= 12 IMin12=  1  3 I12=  0  2 IX=  1 XLMin= 0.000D+00 XLMax= 0.000D+00
 X = 0.000D+00 1.000D+00 2.000D+00 4.000D+00 8.000D+00 1.600D+01 3.200D+01 6.400D+01 1.280D+02 2.560D+02 5.120D+02 1.024D+03
 DE= 0.000D+00 2.842D-14 1.421D-14 4.121D-13 2.501D-12 1.187D-11 5.116D-11 2.127D-10 8.668D-10 3.500D-09 1.406D-08 5.637D-08
     Reject polynomial IMin12=  1  3 Big=T Turn=T Min= 1.956D+00 FVal=-7.511330708536D+01 Lims=  0.00D+00  1.00D+00
     ILin=13 X=2.048D+03 Y=-7.511330685969D+01 DE= 2.26D-07 F=  2.20D-10
     No minimum found in polynomial.
     ILin=14 X=4.096D+03 Y=-7.511330618272D+01 DE= 9.03D-07 F=  4.41D-10
     No minimum found in polynomial.
     ILin=15 X=8.192D+03 Y=-7.511330347809D+01 DE= 3.61D-06 F=  8.80D-10
     No minimum found in polynomial.
     ILin=16 X=1.638D+04 Y=-7.511329268895D+01 DE= 1.44D-05 F=  1.75D-09
     No minimum found in polynomial.
 The polynomial fit failed.  Using point  2.
     An  expanding polynomial of degree 16 produced  1.0000
 Search did not lower the energy significantly.
 No lower point found -- using Newton-Raphson step.
 Iteration  47 EE= -75.1133070853589     Delta-E=        0.000000000000 Grad=1.183D-08 Max rot=    0.0000 deg.
 Rotation gradient small -- convergence achieved.
 Orbital symmetries in SymMO:
    1=1    2=1    3=4    4=3    5=1    6=1    7=1    8=3    9=4   10=1
   11=1
 SCF Done:  E(RHF) =  -75.1133070854     a.u. after   47 cycles
            Convg  =    0.1183D-07                   138 Fock formations.
              S**2 =  0.0000                  -V/T =  1.9997
 Leave Link  508 at Fri Feb 28 16:02:26 2025, MaxMem=   104857600 cpu:               0.1 elap:               0.1
 (Enter /share/apps/g16/l601.exe)
 Copying SCF densities to generalized density rwf, IOpCl= 0 IROHF=0.

 **********************************************************************

            Population analysis using the SCF Density.

 **********************************************************************

 Orbital symmetries:
       Occupied  (SG) (SG) (PI) (PI) (SG)
       Virtual   (SG) (SG) (PI) (PI) (SG) (SG)
 The electronic state is 1-SG.
 Alpha  occ. eigenvalues --  -20.43342  -0.98913  -0.30901  -0.30901  -0.00786
 Alpha virt. eigenvalues --    0.23250   1.33382   1.35408   1.35408   1.41690
 Alpha virt. eigenvalues --    1.52481
          Condensed to atoms (all electrons):
               1          2
     1  O    8.237017   0.029332
     2  H    0.029332   1.704319
 Mulliken charges:
               1
     1  O   -0.266349
     2  H   -0.733651
 Sum of Mulliken charges =  -1.00000
 Mulliken charges with hydrogens summed into heavy atoms:
               1
     1  O   -1.000000
 Electronic spatial extent (au):  <R**2>=             65.3025
 Charge=             -1.0000 electrons
 Dipole moment (field-independent basis, Debye):
    X=              0.0000    Y=              0.0000    Z=              8.7598  Tot=              8.7598
 Quadrupole moment (field-independent basis, Debye-Ang):
   XX=             -8.8860   YY=             -8.8860   ZZ=            -31.6365
   XY=              0.0000   XZ=              0.0000   YZ=              0.0000
 Traceless Quadrupole moment (field-independent basis, Debye-Ang):
   XX=              7.5835   YY=              7.5835   ZZ=            -15.1670
   XY=              0.0000   XZ=              0.0000   YZ=              0.0000
 Octapole moment (field-independent basis, Debye-Ang**2):
  XXX=              0.0000  YYY=              0.0000  ZZZ=             82.3799  XYY=              0.0000
  XXY=              0.0000  XXZ=              5.3920  XZZ=              0.0000  YZZ=              0.0000
  YYZ=              5.3920  XYZ=              0.0000
 Hexadecapole moment (field-independent basis, Debye-Ang**3):
 XXXX=             -7.7359 YYYY=             -7.7359 ZZZZ=           -298.1997 XXXY=              0.0000
 XXXZ=              0.0000 YYYX=              0.0000 YYYZ=              0.0000 ZZZX=              0.0000
 ZZZY=              0.0000 XXYY=             -2.5786 XXZZ=            -22.6223 YYZZ=            -22.6223
 XXYZ=              0.0000 YYXZ=              0.0000 ZZXY=              0.0000
 N-N= 1.411139229120D+00 E-N=-1.840841303996D+02  KE= 7.513210381802D+01
 Symmetry A1   KE= 6.551119316733D+01
 Symmetry A2   KE= 0.000000000000D+00
 Symmetry B1   KE= 4.810455322765D+00
 Symmetry B2   KE= 4.810455327928D+00
 No NMR shielding tensors so no spin-rotation constants.
 Leave Link  601 at Fri Feb 28 16:02:26 2025, MaxMem=   104857600 cpu:               0.1 elap:               0.1
 (Enter /share/apps/g16/l9999.exe)
 Unable to Open any file for archive entry.
 1\1\GINC-WEBSERVER\SP\RHF\6-31G\H1O1(1-)\WEBMODEMO\28-Feb-2025\0\\#P R
 HF/6-31G scf=qc\\HO\\-1,1\O,0,0.,0.,0.\H,0,0.,0.,3.\\Version=ES64L-G16
 RevC.01\State=1-SG\HF=-75.1133071\RMSD=1.183e-09\Dipole=0.,0.,-3.44638
 43\Quadrupole=5.6381493,5.6381493,-11.2762986,0.,0.,0.\PG=C*V [C*(H1O1
 )]\\@
 The archive entry for this job was punched.


 THE FIRST MORNING OF CREATION WROTE WHAT THE LAST DAWN OF
 RECKONING SHALL READ. -- OMAR KHAYYAM
 Job cpu time:       0 days  0 hours  0 minutes  0.8 seconds.
 Elapsed time:       0 days  0 hours  0 minutes  0.8 seconds.
 File lengths (MBytes):  RWF=      6 Int=      0 D2E=      0 Chk=      1 Scr=      1
 Normal termination of Gaussian 16 at Fri Feb 28 16:02:26 2025.
